32
Lattice="6.029629794825965 0.0 0.0 -0.5487626372569059 12.04680237449582 0.0 -3.0148148974129826e-05 0.0 8.171287972020405" Properties=species:S:1:pos:R:3:forces:R:3 energy=-7752.176601561658 stress="-0.01863492695808807 -0.0014277350916351472 4.3153407914374227e-05 -0.0014277350916351472 -0.02372335646152343 -0.00013588732704951885 4.3153407914374227e-05 -0.00013588732704951885 -0.025161191286925778" free_energy=-7752.176601561658 pbc="T T T"
Li       1.84600010       1.96119015       0.01780067       0.00303107       0.13584166       0.04820664
Li       1.46060004       7.91872969       8.08907457       0.05259269       0.07887270       0.33975251
Li       3.85242996       4.08224991       4.13343001      -0.10561603       0.06862866       0.02583779
Li       3.94460974      10.26219958       4.17637002      -0.39544158      -0.42849491      -0.38539988
Li       4.11109988       4.16617994       8.13824078      -0.17840679       0.00888033       0.33248838
Li       3.68713008       9.85148954       0.02710319       0.14088591       0.60012427       0.01364227
Li       1.83536022       1.78235977       3.97504972       0.09506782       0.07254445       0.05946653
Li       1.69476011       8.14250975       4.11838970      -0.39489419      -0.40009039      -0.21650334
Li       4.91808985       1.19133003       6.13912003       0.03687270      -0.19731391       0.01101872
Li       4.58763961       7.15288953       6.13098003       0.04454719      -0.10139120       0.02892491
Li       0.99580301       4.93674010       2.04155969      -0.16222170       0.20471586       0.05243071
Li       0.35417382      10.68929936       1.99570978      -0.00783055      -0.04635313       0.02314199
P        0.75194669       5.09979998       6.10160006      -0.56920085      -0.33860529      -0.07799981
P        0.54660704      11.21169985       6.14014989      -0.12019419      -1.85261661      -0.56577485
P        5.03878978       0.99519281       2.03111999      -1.06526203      -0.63254100      -0.33820265
P        4.68849964       6.90071956       2.10574992       0.15243248       1.17570325      -0.55651142
S        1.33867007       1.11972999       6.12362991       0.07664304       1.41792123      -0.13311347
S        0.94538988       7.08878974       6.07747008       0.29809370       1.02950622      -0.39309648
S        1.00140996       1.05134977       1.96097007       0.85326069       0.29821917      -0.00935393
S        0.62110614       7.34046950       2.02773978       1.13724315       0.39385058       0.28150854
S        4.77893986       4.74930966       6.08698966      -0.59083411      -0.08164615       0.07562463
S        4.60810960      10.71869984       6.16148996      -0.65908790       0.42768913       0.81514229
S        4.49682012       4.95103997       2.14819008      -0.14371850      -1.87483017      -0.38451311
S        3.92437008      11.05749991       2.10733994       0.26759193      -0.12938100      -0.67761732
S        4.32954975       1.76862970       3.75791974      -0.41581526       0.48676099       0.31554198
S        3.94721997       7.61038950       3.81446983      -0.57450375       1.02153065       0.51027322
S        1.41884967       4.26479996       4.42017991       0.96502758      -0.65977104      -0.82442114
S        1.29291000      10.40319946       4.41142006       0.48188901       0.21259346      -0.14160274
S        4.25269970       1.75639981       0.29788120      -0.15018713       0.34659319       0.10055353
S        3.94443970       7.57749968       0.32321770      -0.74367873       0.23205852      -0.05870111
S        1.49287966       4.41558955       7.81943978       0.89781405      -0.78167810       0.81365156
S        1.30440971      10.42179966       7.80685956       0.77390051      -0.68732144       0.91560455
32
Lattice="6.178530206889693 0.0 0.0 -0.5623142126592379 12.34430174890216 0.0 -3.0892651034448467e-05 0.0 8.373082351074842" Properties=species:S:1:pos:R:3:forces:R:3 energy=-7750.57230245212 stress="-0.00199240202498281 -0.0006555645372524085 -0.0013946814174879672 -0.0006555645372524085 0.013596077965873482 -0.0031520350929797173 -0.0013946814174879672 -0.0031520350929797173 -0.011918604002904083" free_energy=-7750.57230245212 pbc="T T T"
Li       3.25335327      11.85524822       4.68270001      -0.24803612      -0.09377430      -0.36067898
Li       1.32620977       6.32798020       1.26336979       0.05886129      -0.15395431      -0.13798442
Li       4.02016942       4.61221040       8.32339029       0.17318745      -0.03010530       0.59296247
Li       1.54571627       2.10819977       4.17346988       0.18169678      -0.36284668       1.09911138
Li       3.83800967       0.15037307       7.60712316      -0.07652169      -0.01290694       0.12803811
Li       5.42532969      10.07470023       3.58766984      -0.33682583      -0.42270427      -0.24460139
Li       1.63655487      11.54660716       1.41318988      -0.31244894       0.43396905       0.75035589
Li       0.36672975       7.09040033       3.94793005       0.11490414      -0.26415822      -0.23189191
Li       0.85937053       2.39044986       0.14779971       0.26323957       0.33386623      -0.12268302
Li       5.34602084       3.71787989       4.16392034      -0.07389248      -0.19200767      -0.48907447
Li       5.66676317       9.08492008       7.91304753       0.40276691       0.08981480      -0.02214003
Li       3.46964014       6.42617002       5.33298043      -0.28536957       0.13374570      -0.22503246
P        0.59458282       5.24581002       6.29978016       0.60510630       0.70947175      -0.26789224
P       -0.02345061      11.96110066       6.28144042       1.45067348       0.87592754      -0.43820340
P        4.86698024       1.09413985       2.20431978      -1.61204672       0.51331483      -0.98975388
P        4.46757039       7.45698056       1.88785979       2.14210843      -1.08593910       1.93295870
S        0.21374007       1.67657012       6.48477029       0.39862383      -1.58257724      -0.85424620
S        0.80547027       7.33953040       6.20428047      -0.04573864      -0.81893389       0.02122189
S        0.64235028       1.68723983       2.25848016      -0.55048553      -0.59864692      -0.75622315
S        0.33968076       8.28031048       1.88248014      -1.18221457       0.35692028       0.61458596
S        4.82262024       4.57796033       6.17525991       0.08885784       0.46268904       0.59073923
S        4.51574006      10.86370039       6.50487029      -1.57856658      -0.64953136      -0.50505645
S        4.84128991       5.39449017       2.29393010      -0.22999418       0.88781015      -0.61097407
S        3.84646993      11.36950021       2.15837005       0.71280724       0.61786154      -0.02396345
S        3.87205028       1.78929988       3.83452992       0.47758370       0.35135205       0.62318784
S        3.33112985       8.20011007       3.38335017       0.32274338       0.12679729       0.63516275
S        1.45137011       4.43938022       4.58444037       0.32337356       1.01806583       0.29354388
S        0.81924901      11.51550011       4.38330018       0.08817933       0.35180327       1.15234041
S        3.86091039       2.07993979       0.54628402       0.58222657      -0.74107164       0.84035941
S        3.78610013       7.85840028       0.15431003      -1.61175489      -0.01269688      -2.16982518
S        1.65767988       4.67993018       7.99231004      -0.73156961      -0.42704584      -0.18943297
S        1.15067031      11.02750064       7.71216003       0.48852554       0.18549147      -0.63491053
32
Lattice="6.309020014697592 0.0 0.0 -0.5741902205576425 12.604999285024803 0.0 -3.154510007348796e-05 0.0 8.549920833718028" Properties=species:S:1:pos:R:3:forces:R:3 energy=-7751.016601628405 stress="-0.001709609479501379 0.0018464149641660972 0.0006133292869532338 0.0018464149641660972 0.0031254085221389333 -0.0032658866372644495 0.0006133292869532338 -0.0032658866372644495 0.005018649524680203" free_energy=-7751.016601628405 pbc="T T T"
Li       0.97526282       1.46216018       0.17111072       0.28297510       0.32529134       0.62247462
Li      -0.09822135       4.87661002       3.63442013       0.22302777      -0.04111734      -0.18369761
Li       2.60576028      11.76690023       0.52772618       0.38701145      -0.26528102      -0.14428877
Li       3.34334024      11.46399977       4.79473976      -0.36180435       0.33294912      -0.39469776
Li       3.22543853       5.71392990       7.83297894       0.52961768      -0.13407172       0.42211883
Li       5.29696172       3.55219971       0.63743373       0.01353377       0.01486458       0.08146797
Li       5.36817920       9.86734011       0.94869996      -0.00817199       0.67307984      -0.06879295
Li       0.63664321       8.51461997       4.19446994      -0.11619175       0.02332788      -0.10114231
Li       3.12147030       5.60291008       3.99033024      -0.94725534       0.09442762       1.44976511
Li       1.57862974       0.97533412       4.12415970       0.04944540      -0.45612887       0.34002094
Li       0.71627818       7.55730000       8.27362992      -0.00967943       0.38272542       0.33728734
Li       5.89283037       2.45539993       4.87750022      -0.05252661      -0.15119141       0.42477092
P        0.79402171       4.77546002       6.56609996       1.07482345      -1.08892749      -0.24846395
P        0.04245213      11.34880022       6.50348988       0.67619499       0.41074299      -0.69983268
P        4.60517011       0.93979099       2.31114986       1.04244478      -0.15195708       0.49309696
P        5.02540005       7.20905030       2.07816974       1.20279086      -0.53963984      -0.56263373
S        0.84367623       0.78896377       6.64985977       0.21388827      -0.13668216      -0.85064794
S        1.71645028       6.65972014       6.41100974      -0.70694410      -0.10701446      -0.54975945
S        0.14427404       2.01749022       2.46479974      -0.25284357      -0.25146623      -0.62810842
S        0.79928028       6.83018986       2.13559003      -0.25968502       0.32219856       0.72133405
S        5.11922023       4.45589996       6.19770997      -0.35127054       0.53501212      -0.14083963
S        4.43821010      10.86790021       6.64200000      -0.64519623      -0.73088287       0.60411180
S        4.19390024       5.32052024       2.21497012       0.32724924      -0.55771984      -0.85907139
S        4.25720999      11.50649985       2.55079988      -0.24858994       0.14674314      -0.84402118
S        3.86245019       1.52424031       4.10853983      -0.83513570       0.09214911       0.10165782
S        4.47136021       8.55655982       3.43469990      -0.04883836      -0.33464270       0.33638154
S        1.82289985       3.63396020       5.11694015      -0.44421104       0.99529512      -0.14674957
S        0.89472188      10.94349994       4.59564980      -0.00631746      -0.05316090       0.71278076
S        3.76206990       1.42997976       0.51650180       0.03409103       0.35046039       0.37339386
S        4.73052970       7.81497994       0.16110714      -0.80344506      -0.16677461      -0.53265698
S        1.28865014       3.95099981       8.39270005      -0.06796223       0.65940517      -0.21989308
S        1.03179985      10.38050003       8.03817982       0.10897441      -0.19201358       0.15463540
32
Lattice="5.883220219881958 0.0 0.0 -0.5354377554316768 11.754303356450299 0.0 -2.941610109940979e-05 0.0 7.97289297622227" Properties=species:S:1:pos:R:3:forces:R:3 energy=-7748.654693509609 stress="-0.03133671940675729 -0.008804213372147544 0.005181163422570506 -0.008804213372147544 -0.03456587973941376 -0.0003378820023933982 0.005181163422570506 -0.0003378820023933982 -0.03816781206384121" free_energy=-7748.654693509609 pbc="T T T"
Li       2.45380055       0.72065977       3.61154004       0.16370085       0.01646277       0.11608685
Li       5.40993927       3.42108020       0.21652015      -0.20781584       0.20250831       0.30617673
Li       1.22237020       4.79234000       2.27432998      -0.05147194       0.10454080       0.02168083
Li      -0.01502927       8.62781011       6.96176039      -0.24823384       0.61282912       0.61394035
Li       1.72309048       1.76486017       7.81112501       0.05207769      -0.29800140       0.41616159
Li       0.48011078      10.33400045       2.38130987      -0.28760000      -0.13591083       0.09946775
Li       0.62292006       8.13501040       4.52485998       0.41330406      -0.51239026      -0.51681076
Li       3.21763021       9.33186037       2.11349980      -0.79575797       0.20763329       0.94711727
Li       3.63420103       6.28609020       7.39457714      -0.72861490      -0.29162301       0.26036430
Li       4.14735021       5.32451021       4.25968030      -0.34729305       0.16281845      -0.39050995
Li       4.82422999       2.41883010       5.29437047       0.11859805      -0.08041022       0.15022262
Li       3.24350991      10.67230032       7.83963039       0.95992805       0.50317954      -0.32157121
P        1.00995006       4.98598031       6.31327009      -0.98643561       2.02982141       2.50714080
P        0.54063676      11.36360047       6.05957033       0.55284374      -1.78147804      -0.92690917
P        4.76635028       1.48196023       2.08301001       0.29182741       0.22153216      -0.62312639
P        4.80096009       7.23896008       1.89441986       2.86766114      -0.09886123       1.05754075
S        1.30745980       1.46854002       5.53198021       0.46404504       1.75332421       0.04741500
S        1.47821026       6.96902028       6.47078036       0.24223648       0.21144007      -0.89331719
S        0.85984087       2.01001984       2.22882033      -0.17972577       0.14317676      -0.32588733
S        1.02664017       7.24272004       1.60070009      -1.14329810       0.91317562       1.13442959
S        4.84704041       4.76827998       6.36134011      -0.14558692      -0.66970527      -0.52840129
S        4.63083030      10.76590059       5.75207030      -2.89460219      -1.15678662       0.24765148
S        4.31003007       5.31312030       1.82821010      -0.34846495      -0.52687175       0.28622806
S        4.21981030      11.28410051       2.72597009      -0.71314251       0.48255673      -0.07392821
S        3.71511002       2.92751038       3.20790995       0.25563527      -2.09727276      -0.19865731
S        4.33274989       8.11015027       3.72556038      -0.30467624      -0.33635197      -0.37617245
S        1.72992031       4.16944994       4.79377021       1.28224977      -0.85501907      -3.52676987
S        1.63787027      10.17000039       4.71603992       0.54014198       0.39712951      -0.16102099
S        4.05222030       1.48395994       0.11479810       0.66487494       0.16097985       0.46450527
S        3.89365987       8.24196029       0.41547419       0.02361815       0.93037476      -1.45195106
S        1.76049011       4.05938018       7.94714036       0.17264803       0.39048012       0.22901124
S        1.01467017      10.89190034       7.94156012       0.31732967      -0.60328107       1.40989270
32
Lattice="6.318509749574997 0.0 0.0 -0.5750538908185701 12.623902272909877 0.0 -3.159254874787499e-05 0.0 8.56278754603629" Properties=species:S:1:pos:R:3:forces:R:3 energy=-7749.296033037602 stress="7.804339729195339e-05 0.0022494861572386568 -0.005434574924365555 0.0022494861572386568 0.013791645537910962 -0.0035376612913634873 -0.005434574924365555 -0.0035376612913634873 -0.008586610017345273" free_energy=-7749.296033037602 pbc="T T T"
Li       0.37582117       9.02090983       8.49364978       0.29440854      -0.14701414      -0.52089907
Li       1.61085983       6.69676986       3.03050007      -0.46720081       0.13380252      -0.19844314
Li       3.21352013       4.70654987       4.70486977       0.41248594      -0.95468480      -0.35882496
Li       5.10341610       4.01030001       1.21805009      -0.09955363       0.17938073       0.35305489
Li       4.26160357      10.77029983       0.14959325      -0.43781979       0.29915634       0.33013684
Li       1.47606454       0.80519992       3.84177967       0.26637400      -0.12139026      -0.38254775
Li       3.76776401      12.19514273       4.56119002      -0.39111596      -0.17528984      -0.10557927
Li       5.47518963       9.35321985       4.74937988       0.61528915       0.04141584      -0.34103498
Li       2.99521120       7.31761968       5.33631005       0.37200803       0.31952333      -0.22081894
Li       5.66839133       2.34479012       5.89040986      -0.28457484       0.25735123      -0.21897160
Li       2.92460248       6.29094967       7.85379641      -0.43677412      -0.32920482       0.25140607
Li       1.10399024       2.32485965       0.03256307       0.26394714      -0.29076297      -0.66484048
P        0.17813901       5.44593998       6.82384963       1.31959890       1.48351804      -2.49523711
P        0.53480625      11.66149972       6.33240984       1.45563700       0.58222271      -2.21328376
P        5.14471008       1.34602013       2.13976017      -0.71972582       0.37963932      -1.32981415
P        4.24008967       7.71457942       2.05410961       1.63736720      -1.02492682       2.53803775
S        1.29877979       1.13564977       6.17149003      -0.27820570      -0.27547673       0.71481604
S        0.95195679       7.48261998       6.48575944      -0.63501672      -0.92855468       0.41579752
S        0.55246585       2.45720020       2.20269000       0.13451472      -0.36556485       1.11025968
S       -0.07376671       8.25362981       2.04581972       0.02602008      -0.67471095       0.40979733
S        4.50485988       5.38222982       6.33273967       0.01560994       0.07212304       1.09091084
S        4.98977012      10.92669937       6.48357955      -1.13400793       0.06224101      -0.09058922
S        3.76617996       5.68200962       2.79412968       0.52252247       1.16271224      -1.79665269
S        4.85684952      11.93149976       2.35425967      -0.17740920       0.88865399      -0.07286301
S        3.83548011       2.09898998       3.54479960       0.27255108      -0.53992626       1.04465824
S        3.47592974       8.89205962       3.49816015      -1.00101582       0.12166872       0.96499467
S        1.12555026       4.35843979       5.28721965      -1.23983531       0.11572664       0.62727949
S        1.34630004      11.04449977       4.47277006      -0.50975745       0.35131374       0.44613602
S        4.30157952       2.03426001       0.30640792       0.18095553      -0.68795779       0.15252195
S        3.43861009       8.22249978       0.37579779      -0.87558661       0.59398654      -1.91271049
S        0.73013160       4.81704986       0.04863989       0.18884856      -0.04899571       0.63116777
S        1.70808021      10.82839979       7.64622958       0.70946198      -0.47997560       1.84213602
32
Lattice="6.235969746970428 0.0 0.0 -0.5675418426415255 12.458999856715891 0.0 -3.117984873485214e-05 0.0 8.450930077366602" Properties=species:S:1:pos:R:3:forces:R:3 energy=-7750.291366682815 stress="-0.005008549790913009 0.004826754583103518 0.003419218959002758 0.004826754583103518 0.0051517823788841234 -0.0006491374339460123 0.003419218959002758 -0.0006491374339460123 -0.004563243347541275" free_energy=-7750.291366682815 pbc="T T T"
Li       2.88940478      12.32246080       4.68935010      -0.03927951       0.28875854      -0.13041792
Li       3.83713000       4.98829002       0.04518459      -0.15559596       0.09586075       0.21174526
Li       3.74976968       4.53136991       4.60346957      -0.21908807       0.11306915      -0.09485957
Li       2.01595370       0.76239968       0.14939513       0.23343534      -0.09600679       1.51423964
Li       5.99587868       2.35479010       7.11526954       0.13847370      -0.42602614       0.46769806
Li       4.22514888       8.13548978       6.02257985       0.27460436      -0.07016592      -0.01581563
Li       0.66971696       1.48220021       4.32916984       0.00038181       0.11949973       0.13115326
Li       1.54900990       6.85959977       3.82386983      -0.21413176      -0.10890216       0.52683266
Li       3.94141662      11.02479978       0.09421989      -0.10021183      -0.20706739      -0.15957886
Li       1.44071979       8.17668959       8.45089952      -0.34008264      -0.21702810      -0.08346341
Li       0.05566351       3.95130998       2.89459997       0.16993346      -0.02265836       0.15445362
Li       5.42760972       9.90649958       3.70452959      -0.36812155       0.08148752      -0.09130373
P        0.45880898       5.18901965       6.48328955      -1.67124457       2.53891809      -0.75376286
P        0.37681596      11.38379957       6.46006992       0.95404305       1.17944241      -1.11780613
P        4.86706962       1.40958983       2.11622996       0.69290022      -0.24629394       0.16784650
P        4.72231967       7.27009994       2.04578970      -2.28866311       0.84499640      -0.31104795
S        1.77345991       0.99815426       6.52971947      -1.45945200      -0.63876795      -2.00382884
S        0.25428975       7.29153983       6.06632954       0.49111464      -0.80738193      -0.44444166
S        0.66850406       1.89949010       1.95810011       0.01530449      -0.65276144      -0.21264823
S        0.24423176       8.09697955       2.33857970       1.32079498       0.42632773      -0.73922455
S        4.88603009       4.23330989       6.57727996      -0.57202546       0.48402791       0.02673047
S        4.60134996      11.19929967       5.97850963       0.14728282      -0.24730156       1.47973492
S        4.47898964       5.29307990       2.45662973      -0.08089050      -0.37217978      -0.93883601
S        3.81043007      11.89149980       2.42310016       0.26227849      -0.18265065      -0.38324427
S        4.41351008       2.30464979       3.90090963      -0.09233037      -0.13496415       0.52094715
S        3.55387978       8.08994974       3.59001972      -0.09720827       0.57958605      -0.41800969
S        1.35514981       4.19702964       5.04483966       1.28836720      -0.66778260      -2.18961959
S        1.16285994      10.58169983       4.75164993       0.81562746       0.08281292       0.34277665
S        4.00091962       2.13668020       0.47523515      -0.31546253      -0.00431740      -0.50031148
S        3.83562963       7.87878983       0.01022325       0.69929892      -0.42575052       2.04270649
S        1.40560005       5.19294955       8.13000961       1.09941297      -0.57018892       2.64215868
S        1.22420006      10.81689940       8.21502958      -0.58946602      -0.73659175       0.35919700
32
Lattice="5.875400039096909 0.0 0.0 -0.5347260329582487 11.738602747712653 0.0 -2.9377000195484545e-05 0.0 7.962289254383779" Properties=species:S:1:pos:R:3:forces:R:3 energy=-7750.114175266896 stress="-0.016038377222304022 0.0019501667746836353 -0.0032925132081052335 0.0019501667746836353 -0.03699899741969231 0.000589457188958048 -0.0032925132081052335 0.000589457188958048 -0.024497363331136567" free_energy=-7750.114175266896 pbc="T T T"
Li       1.03037067       2.71768979       3.83338008      -0.30526451      -2.86852966      -0.07170832
Li       3.22939013       6.12561981       6.34652017      -0.00933439       0.17019777       0.05181544
Li       3.86318011       4.24329029       3.98843012      -0.12579791      -0.31310277       0.20040695
Li       0.56070000      10.13560032       1.73368014      -0.48463161      -0.13496620       0.25350074
Li       0.67756288       2.21954987       7.24796576      -0.67473563       0.57650792       0.97387474
Li       5.69641009       3.74283018       1.48079000       0.44526699       0.49415729      -0.04292122
Li       3.77937223       9.99175995       3.66597994       0.09307033       0.01910792       0.70402770
Li       2.43172819       0.28330004       3.48747001       0.32586187       0.39231486       0.32827845
Li       5.04255680       8.50932014       7.34391809      -0.14596615       0.46532725       0.54480750
Li       0.58257999       7.94577997       4.32443015      -0.00909373      -0.74302645      -0.12296738
Li       1.77345014       6.12653990       0.80010493      -0.29575503       0.18980064       0.36185912
Li       2.82940817       0.42030027       7.79172992       0.43191139      -0.20788115       0.10442458
P        0.50044895       4.93880017       6.13651986      -0.41537894       0.26469867      -0.20628758
P        0.21045389      10.87009994       5.93667987       0.51357014      -0.14179505      -0.24059355
P        5.09554997       0.94130724       1.82505025       0.65210092      -0.74502214       1.43414515
P        4.15092019       7.13006998       2.26150023       0.68688435      -2.06491311       0.13590980
S        1.60930027       1.00177980       5.88499986       0.31494240       0.13649755      -1.61273371
S        0.57666993       6.99018023       6.52436030       0.65949285      -0.89215763      -0.55583728
S        1.38908029       1.25463997       1.71490001      -1.21278113       0.24038555       0.33718270
S        0.24617104       7.43346976       1.99893976       0.54478334       0.83147317       0.28675462
S        4.52539997       4.08522029       6.22412031       0.14536914       0.52378899       0.01406831
S        4.17411979      10.34010008       6.06247983      -0.56618983       0.62740265      -0.11887881
S        3.88184978       5.06825991       1.91401027      -0.34927897       0.39949647       0.06230066
S        3.91999993      10.72630011       1.53424027       0.34564857       0.64590148      -0.34154817
S        4.44201982       1.49934980       3.73259993       0.70800416       0.39861098      -0.67124124
S        3.51265022       7.71219991       4.07893009      -0.10051728      -0.13265015       0.22701581
S        1.15990972       4.66616986       4.17612977       0.78820201       2.29411590       0.90980491
S        0.95729185      10.12109983       4.13786975      -0.00938941      -0.21867541       0.18660655
S        4.52954977       2.17192976       0.36336000      -1.04415945      -0.15189666      -0.56499195
S        3.17601976       7.87392030       0.70365730      -0.71848449       1.15163027      -0.99192491
S        1.71875016       4.22152017       7.69256021      -0.48632622      -0.38844124      -1.04938778
S        1.18082027      10.07900024       7.52711012       0.29797517      -0.81835797      -0.52576231
32
Lattice="5.755279987863904 0.0 0.0 -0.5237937869754817 11.498600503913027 0.0 -2.8776399939319523e-05 0.0 7.799497886753284" Properties=species:S:1:pos:R:3:forces:R:3 energy=-7750.186387068659 stress="-0.04014093277890483 0.015156027754097348 0.0018216247085557121 0.015156027754097348 -0.028977054335694693 -0.002029128329590788 0.0018216247085557121 -0.002029128329590788 -0.040467796889915836" free_energy=-7750.186387068659 pbc="T T T"
Li       3.19492110       1.44127002       5.84868991       0.03283402       0.08690226       0.09559619
Li       2.18912146       8.38384010       7.58871824      -0.17166562       0.16775085      -0.12413260
Li       4.24794971       4.36694013       3.45238988      -0.21306835       0.13575965       0.49941082
Li       3.03040009       9.00315024       3.99960996      -0.26921147       0.52435464      -0.01586448
Li       4.50164994       4.99824024       0.19840580      -0.58612770      -0.43791903      -0.21068416
Li       1.63458987      11.47049977       0.26243616      -0.22357387      -0.13011325      -0.41121967
Li       2.04521011       0.06679923       3.91190007      -0.08944971      -0.10146807      -0.21821364
Li       2.08517017       6.18711016       2.96460976      -0.73431658      -0.32631516      -0.16745826
Li       0.10033007       2.46165008       7.65521014       0.59456066       0.30520486       0.11124392
Li       5.26331981       7.19625016       5.78661979      -0.02312142       0.05926881       0.14725711
Li       0.03917159       2.55228999       4.23054978       0.32460255      -0.21959818      -0.04949168
Li       5.14224425      10.00030026       1.94402998       0.92901182      -0.11326738      -0.07899560
P        1.51408985       4.80434026       5.77190987      -1.43692399       0.11463289       1.42960972
P        5.14271676      10.67259984       5.83712985      -0.17147870      -0.31120350       0.05618735
P        4.32133011       0.83887522       1.82286983       1.53284825      -1.45810654       0.74827124
P        5.25814005       6.82910991       2.06815986       0.41834805      -0.60349962      -1.72345313
S        0.69210177       1.06705999       5.91022997       0.28970830       0.23005357      -0.32258423
S        1.88064996       6.81104006       5.51814001      -0.50595222       0.04266669       0.36143771
S        0.64862926       0.85768002       1.90246996      -0.22226467       0.60859657       0.11891378
S        1.03141984       8.18371002       1.99209003       0.30905843      -0.70431926       0.30196321
S        5.18064981       4.25901021       5.96085974       0.23265553       0.67513801      -1.04244375
S        3.06858982      10.54020020       5.91337983       0.10818662      -0.07137742      -0.12771981
S        0.23133003       4.82065993       1.95410000      -0.82800012       1.52033187       0.38222817
S        3.02568997      10.37460008       1.87969977      -0.85032167       0.66610572      -0.04704373
S        3.73414997       1.74029998       3.51803978      -0.22217417       0.48637816       0.03183566
S        4.00570998       6.98040011       3.62928014       0.68093070      -0.38267168       0.92829345
S        2.04774013       3.79222017       4.16582993       0.84595773      -0.24455716      -0.46377327